LAMMPS data file via write_data, version 23 Jun 2022, timestep = 1000000

4096 atoms
1 atom types

-8.4143135181382 8.4143135181382 xlo xhi
-8.4143135181382 8.4143135181382 ylo yhi
-8.4143135181382 8.4143135181382 zlo zhi

Masses

1 1

Pair Coeffs # lj/cut

1 1 1

Atoms # full

313 0 1 0 -7.600463864275029 -7.738516134764884 -7.638641431159641 -2 0 2
3312 0 1 0 -6.446520803292914 -7.568551738880877 -7.996155631481859 -1 2 0
2100 0 1 0 -5.299413549793368 -7.547224127035185 -7.747017067810359 -1 1 2
1744 0 1 0 -3.322159010789853 -8.237747062161414 -7.891773976557096 1 0 0
4094 0 1 0 -2.1830807626523456 -7.691139565939642 -8.125331880803104 -1 2 0
2002 0 1 0 -1.3491215827968894 -7.459569760008907 -7.476203054625428 -1 0 1
97 0 1 0 -1.2315390020724017 -8.413603771026688 -8.169780277787195 1 0 1
3455 0 1 0 0.06758149422250405 -8.253637608349582 -8.15828471305879 2 -1 0
1359 0 1 0 1.189261295923098 -7.966245347538388 -7.702715630102267 -2 1 1
2271 0 1 0 2.2900636131637566 -8.019070360283889 -7.7795128066377135 0 1 1
3043 0 1 0 4.075008331833566 -7.582989649636143 -8.336744700834783 0 1 2
2899 0 1 0 4.7071370067247145 -7.847794190078158 -7.633799051803577 1 -2 3
200 0 1 0 6.937906961947432 -8.305024617632553 -7.877538521415918 1 -1 2
1701 0 1 0 6.493277386568275 -7.440108154773132 -7.534562782039387 -1 1 -1
3019 0 1 0 8.115144862953363 -7.64418150541816 -8.36214715425219 -2 0 2
1525 0 1 0 -8.05777617404897 -6.753782904893377 -8.051678750949794 -1 -1 2
1965 0 1 0 -5.832635596978053 -6.737448605608399 -8.376789273337227 0 -1 0
3285 0 1 0 -3.837289041453165 -7.177269816023071 -7.557429035799997 3 1 1
3163 0 1 0 -2.9019190254796055 -6.617009011142789 -7.649104827696742 0 0 1
88 0 1 0 -3.18837421475065 -7.300623661465442 -8.300290204805417 1 0 0
3429 0 1 0 -0.5084587649929919 -7.276861983491657 -8.070974893417885 0 1 0
3947 0 1 0 -0.6839593841116675 -6.5123641056566886 -7.480337986255745 0 0 1
402 0 1 0 -1.4074800141115273 -6.44612179926571 -8.274441423431547 2 1 1
220 0 1 0 0.668109851871221 -7.196007807456084 -8.149635286277457 1 -1 -1
1747 0 1 0 1.6363291439237293 -6.961810929037273 -8.118999620673156 0 -2 1
2849 0 1 0 3.0003182873047978 -7.135919547104916 -7.757374377625911 -1 0 3
667 0 1 0 3.8943951835242983 -6.736772102716907 -7.634621486075742 -1 1 0
854 0 1 0 4.682927256775859 -6.5433095397862004 -8.219659935528043 0 1 0
471 0 1 0 5.541469102424743 -7.290396633334786 -7.76264588129026 0 0 -2
3433 0 1 0 7.147365582776415 -7.154631398437414 -8.28333861135566 -1 1 2
743 0 1 0 8.090660800742638 -7.136390094653661 -7.460273022536138 -2 0 -2
3858 0 1 0 -7.6458485215741065 -5.750204496401788 -7.6165019443404045 -1 -1 1
2096 0 1 0 -6.894624470105974 -6.33358586509446 -7.730854485547058 1 0 -1
2729 0 1 0 -6.1662441340390535 -5.57683494460202 -7.806484214567411 0 0 -1
1312 0 1 0 -4.595625444006515 -6.318954792410254 -7.46328258173405 -1 -1 0
2788 0 1 0 -3.745573688617683 -5.781717140760634 -7.490836496232138 -1 0 0
1748 0 1 0 -2.5585166020372214 -5.53928929115447 -7.674006630861078 -1 2 -1
3549 0 1 0 -1.633743260572594 -5.980600095001154 -7.432926304924174 1 3 2
1512 0 1 0 0.012360266983181325 -6.339375054867134 -8.156495889863752 0 -1 0
406 0 1 0 1.024702919420567 -6.092348383971257 -8.161992501619133 2 -1 2
2865 0 1 0 1.7935958133984635 -5.924433114302194 -7.507638405369254 0 -1 2
250 0 1 0 2.5985839020459767 -6.27249106700768 -8.312979389132712 1 -1 0
163 0 1 0 4.2103638912547785 -5.804298801190047 -7.629520753099789 1 0 1
611 0 1 0 5.654991981542243 -6.24825717990479 -7.595930548155831 0 2 -1
1269 0 1 0 7.279533283369207 -6.299632425342167 -7.697169725838484 -3 -1 0
1439 0 1 0 6.467099872577999 -5.998441708921003 -8.205481340317167 -2 1 1
3374 0 1 0 8.190568765948317 -5.824923247924338 -7.858870362615306 0 1 -1
3322 0 1 0 -7.93157198223713 -4.699625986766061 -7.661356956219675 1 -1 0
3456 0 1 0 -6.841657222921886 -4.7555396463764605 -7.692289427605163 2 0 2
465 0 1 0 -5.799851296634304 -4.520585954860752 -7.6135207699117355 -1 1 1
207 0 1 0 -5.1947788320307335 -5.290417705269845 -7.571384272187587 -2 1 -1
1586 0 1 0 -4.4921367968498656 -5.330971192419886 -8.33984739775623 0 -1 2
3800 0 1 0 -4.08378807844434 -4.765322239965814 -7.620771691383698 1 1 1
2946 0 1 0 -2.649983874911837 -4.6247501532212505 -8.369410577446294 0 2 2
605 0 1 0 -3.380956800128782 -5.375202270682958 -8.278802079359838 1 -2 0
413 0 1 0 -0.9921440868959581 -5.115073146168593 -7.547037254278375 1 0 1
32 0 1 0 -0.15091100776340588 -5.015543895609606 -7.9621293531916155 0 -1 -1
2449 0 1 0 1.4014783810571394 -4.970665060705721 -7.808496489350638 0 0 4
2168 0 1 0 2.3855847123104432 -5.1292801615027885 -7.845758906644033 0 -1 2
2255 0 1 0 3.4587311095009654 -5.10402199861438 -8.238403378856484 -2 0 2
1115 0 1 0 4.700833618565196 -4.821979153013929 -7.8877840583684105 -1 -2 3
2512 0 1 0 5.85471681506234 -5.135635308098708 -7.708863623427278 -2 1 0
43 0 1 0 6.812155076767555 -4.558538141011671 -7.451338171938813 0 1 -1
1795 0 1 0 7.278142761321021 -5.308399605089532 -8.196424690200168 -3 3 0
3536 0 1 0 -7.541018187156252 -3.745333307289573 -7.444001224488713 0 1 0
2368 0 1 0 -8.013241998985329 -3.8146969434589515 -8.385548943629828 4 0 0
2085 0 1 0 -6.379092297562082 -3.6198502477796572 -7.627289024206848 0 1 -1
2025 0 1 0 -4.28084354022275 -3.5979699793974205 -7.755530112897826 0 -1 4
1039 0 1 0 -3.312534703791258 -4.060283972945961 -7.860248599810226 0 0 2
1651 0 1 0 -1.6217904770997262 -4.101846504970278 -8.3657839820954 0 -1 0
31 0 1 0 -2.231598160829371 -4.0621549387628235 -7.448231652514384 0 2 1
410 0 1 0 -1.3778828702629253 -3.4927686856924796 -7.504285456081746 1 -1 1
3140 0 1 0 -0.3240275551392327 -3.7745076104555406 -7.4673003718744475 -3 2 2
3459 0 1 0 0.6969378294934996 -4.058191336011832 -7.717463247272549 0 1 1
1254 0 1 0 1.9473329887784567 -4.159294372243787 -8.154101007340172 0 -1 0
2356 0 1 0 3.012138328338424 -4.262586611426386 -7.805628007265638 0 0 0
1908 0 1 0 4.067228333618385 -3.8222159687779174 -7.434047265361195 1 0 0
3467 0 1 0 5.186445056996164 -4.031523045377079 -7.4608784804109165 -1 -1 1
691 0 1 0 6.144528291868794 -3.843404883230917 -8.02142152115674 1 -1 2
702 0 1 0 8.120555876752636 -4.0004256325657455 -7.632949822754954 -2 -1 2
444 0 1 0 -7.636357015986567 -2.822464759091095 -8.211416180093527 1 1 -1
1478 0 1 0 -6.766363379067553 -2.5265285714629937 -7.750410159777714 -2 0 0
625 0 1 0 -5.496664736195214 -3.1077213535833907 -7.633456019273854 -1 0 1
1271 0 1 0 -4.58727046552912 -2.495824955981286 -7.778182894775172 0 -1 1
3224 0 1 0 -3.461782038098198 -2.9724797426449356 -8.059522598920676 -1 -2 1
3032 0 1 0 -2.5694376788254014 -2.6743949798135613 -7.510891478540943 0 0 2
319 0 1 0 -1.6716750478272935 -2.5694352244431733 -8.359404805912572 3 0 1
946 0 1 0 -2.3009202220184903 -3.3459014667408584 -8.400100867521324 0 0 -1
3409 0 1 0 -0.6851697115584394 -2.9701633048888447 -8.310582549019598 0 -2 0
1559 0 1 0 0.3620778904351101 -3.0721149279059414 -7.837049719436053 0 1 1
3111 0 1 0 1.5774301249024334 -2.78228037162914 -7.923570300695635 -2 1 -1
2056 0 1 0 3.4113223688875935 -2.9602342929924443 -7.4279903386660315 0 1 1
496 0 1 0 2.499710742021712 -3.33028040772533 -7.679467071755706 0 1 -2
875 0 1 0 3.6265024117283344 -3.4182115746118438 -8.397434732498422 0 -1 0
1340 0 1 0 5.4365744307506505 -3.0276160229534277 -7.426891708277065 1 1 0
2908 0 1 0 4.557292026782758 -2.911478919662626 -8.186499086950173 1 1 -1
3791 0 1 0 5.690027995257872 -2.855216901156537 -8.410101934278934 -1 2 -1
3689 0 1 0 6.286323314539475 -2.497223338024261 -7.699108342361573 0 -1 1
1851 0 1 0 7.848313611653873 -3.182772528793313 -8.210287504487606 1 -1 0
1476 0 1 0 -7.41580869136416 -1.5609737595012743 -7.7691046920872235 1 1 0
4087 0 1 0 -5.71558914072777 -2.075475835597447 -7.993854624210454 0 -2 0
3804 0 1 0 -3.843419102499055 -1.9661857326211887 -8.37897857862328 0 -2 -1
825 0 1 0 -2.2958639664301725 -1.5846347904273148 -7.929894920162981 -1 -1 0
4038 0 1 0 -0.041521265485748055 -2.152771373739343 -8.370748989149835 1 0 3
526 0 1 0 0.9612140041368876 -1.8108772603700107 -8.136231895525128 3 0 -1
2888 0 1 0 1.7075147614946031 -1.491810539401389 -7.434473450525711 0 2 0
2065 0 1 0 2.671931905210033 -2.2334490537383567 -7.9661713699671335 -1 -1 1
3756 0 1 0 3.8064459420049572 -2.173918281125553 -7.967056157044637 0 1 0
1055 0 1 0 6.56140908598372 -1.4893039983930967 -7.764903011977279 -1 0 0
1217 0 1 0 7.276579572915291 -2.371934753474483 -7.6721036892665735 2 1 -1
1818 0 1 0 8.272796815549944 -2.322112616307534 -7.528651293493397 -4 2 0
2055 0 1 0 -8.333101078664402 -1.354926837280806 -7.880926423902285 -2 -1 2
3491 0 1 0 -7.279724543729464 -0.5090288239379455 -7.720943758484758 0 -1 1
2873 0 1 0 -6.404374137487818 -1.1074478126024971 -7.91676485366814 3 -1 -1
3448 0 1 0 -4.8234798764721925 -1.412713817751891 -8.324022410014631 2 0 0
729 0 1 0 -4.464103099804192 -0.5952745923610235 -7.908882539303311 2 -1 -1
1501 0 1 0 -4.121835330302349 -1.4467638178397413 -7.4794844609456685 0 0 0
1829 0 1 0 -3.28433712050682 -0.8996001710685739 -7.836628576808124 0 -2 2
2634 0 1 0 -1.6885660402882088 -0.8124978486473695 -7.721944652644411 1 -2 0
2858 0 1 0 -0.6906829164866173 -1.2463481874315214 -7.727142038626859 0 1 -1
4091 0 1 0 0.18910660999144702 -0.8178600723964214 -7.853679522064672 1 1 1
227 0 1 0 1.4064829295320278 -0.8245676937641138 -8.30429944346062 -1 -1 2
3331 0 1 0 2.741908532408903 -0.840463164856427 -7.730087671548299 2 1 0
2189 0 1 0 3.772814400680235 -0.7793598202451973 -7.48157778166178 1 2 1
2551 0 1 0 3.522789735336971 -1.2973965808838797 -8.274943259582138 2 -2 1
1562 0 1 0 4.570925772435447 -1.4483121550554598 -7.911946867269207 1 -1 0
2134 0 1 0 5.515781106610431 -0.8198415454991017 -7.670488428168042 -1 0 0
2792 0 1 0 7.390077783882207 -0.8857564815731718 -7.893145373257676 1 -1 0
3358 0 1 0 -6.455741303462585 0.16368440460762518 -7.6563745447376 0 -1 0
3908 0 1 0 -5.608403283753277 -0.391979838507414 -7.428402840937753 1 -2 1
2718 0 1 0 -3.483629533009447 0.06908341476699888 -7.569592021769591 1 -2 0
620 0 1 0 -4.417633977890092 0.48543498582646943 -7.61820971345233 -2 1 2
1925 0 1 0 -2.636342295519961 -0.10193068849777857 -8.077741725257464 1 1 1
608 0 1 0 -1.5046453443663579 0.1016926715504013 -8.258657386972462 -1 0 2
3794 0 1 0 -0.6528253375267827 -0.22036494762503908 -7.5636369021656105 2 -1 1
2152 0 1 0 0.8629446686859419 -0.02356860118389991 -7.607814322241048 2 1 1
1119 0 1 0 3.322992075638768 0.3745413950904858 -7.775978789099281 1 -1 0
3671 0 1 0 4.591604006265014 0.4933468006203366 -7.946171066472304 0 0 1
899 0 1 0 5.741478656296815 0.35461330911856254 -7.558244077753487 1 -1 1
2310 0 1 0 6.414290263775182 -0.3389082485829169 -7.62546136160485 1 -1 1
58 0 1 0 6.82215235353374 0.46466149179069993 -8.140015689162825 1 1 1
713 0 1 0 8.361227443403216 -0.2349292339718972 -7.579832284374612 -1 2 2
3616 0 1 0 -8.096258564914367 0.8291931606102462 -7.809640112836977 -1 1 2
1873 0 1 0 -6.967661035320241 0.7979918054057175 -8.392221635215115 3 1 1
2764 0 1 0 -3.7904311210844615 1.4133609698740066 -7.6147097244450785 0 2 2
1106 0 1 0 -2.8526116418916394 0.9126562514470461 -7.797787721653926 2 1 1
3371 0 1 0 -1.9874396696700387 1.4088290057506234 -7.481569657045669 -1 1 -1
3888 0 1 0 -1.9495295860524122 1.0732982385463932 -8.378111859160146 2 -2 1
1350 0 1 0 -1.0534422370731662 1.1127534813340776 -7.752177579640845 0 0 -1
3422 0 1 0 -0.16382472482061938 0.7317961674292451 -7.5926694106962405 -1 0 0
2154 0 1 0 1.0142669730097855 0.97075922918484 -7.492914383985558 1 1 0
338 0 1 0 2.0177899213748227 1.383140964447493 -7.696877717191324 0 0 1
1108 0 1 0 2.527491091499045 0.5404333314680625 -8.39376368246428 0 2 1
2340 0 1 0 3.7449914714487718 1.4334175061724377 -7.72299799754015 2 -1 2
1812 0 1 0 4.723298144517035 1.4773408707139182 -7.7193634590201885 0 0 3
3382 0 1 0 6.377246034343603 1.311310108711126 -7.716037998004084 1 0 0
13 0 1 0 7.797926039815622 0.5731299209939084 -8.267163717826127 0 -1 2
3832 0 1 0 -7.1136780884918265 2.3153922061636902 -8.230992367978686 0 0 -2
1037 0 1 0 -6.087783224516869 2.0395966104925405 -7.872667980650693 0 -1 0
4026 0 1 0 -5.00764266191754 2.0216161825772034 -8.045917273157237 -1 1 0
3205 0 1 0 -2.885144801844326 1.8514164821408507 -8.0720233626745 0 -1 2
1776 0 1 0 -1.0475263904808758 2.1677879123659958 -7.853641633707741 0 -1 -1
243 0 1 0 0.289609608479205 1.545814082962467 -8.173228816821371 0 -1 1
944 0 1 0 1.2416827896192135 1.935808229669273 -8.12347528489949 1 1 0
3727 0 1 0 4.842190068080442 2.4135219239159684 -7.603439993598907 0 1 -1
456 0 1 0 5.726810581003515 1.9742859274752338 -7.977740756719805 -1 -1 1
1553 0 1 0 6.738429782717265 2.2051768077640896 -7.726834902424543 0 1 1
298 0 1 0 8.324240377893164 2.0682183034163892 -8.137913499105986 -2 -1 0
3478 0 1 0 -8.156393491899582 2.7159711197279557 -7.452930308256374 1 0 1
484 0 1 0 -7.941759558360597 3.2478250030572307 -8.263817532277393 1 0 2
1963 0 1 0 -6.795061907782856 3.4248716182035586 -8.011523749758227 0 1 -1
296 0 1 0 -5.637408678242471 3.344853479078186 -7.9840001699076835 2 0 1
3011 0 1 0 -4.462221508093118 2.936169349345424 -7.561921839506581 2 0 -1
1816 0 1 0 -3.793930466566395 2.580300996930669 -8.132379690147744 0 -1 0
2863 0 1 0 -3.161955541531062 3.4144145008659574 -8.362492470611329 -1 1 1
1467 0 1 0 -1.834019731530982 3.2441256464184214 -7.806344891684763 -2 0 2
1591 0 1 0 0.5861158374954614 3.2246151871178137 -8.02814130530738 -2 0 1
857 0 1 0 2.168929409725195 2.9360793319833043 -7.635985826801176 2 1 0
2692 0 1 0 3.274791724652666 2.8100963644869563 -8.294338191299074 1 0 0
3200 0 1 0 3.8846204355140532 2.937343352004857 -7.464583011316274 0 1 0
3931 0 1 0 4.8004861108792465 3.429228980853309 -7.828988411513249 -2 2 -1
3361 0 1 0 5.961432036780663 2.8814894779965674 -8.410780591882975 -1 1 2
907 0 1 0 7.653807431122895 2.917974269504692 -7.996854050445554 0 -1 0
500 0 1 0 -7.517568823391618 4.1602817646842425 -8.407031446189011 1 0 1
360 0 1 0 -6.164633964065219 4.309372952554292 -8.088183782104975 -2 0 -1
2447 0 1 0 -4.597107241573092 3.842643998103882 -8.083166004643441 -1 -2 0
2375 0 1 0 -3.5274613457421875 4.428384755367539 -8.191566980610283 -2 3 0
2669 0 1 0 -2.623903602936783 3.9735230037748948 -7.678500581993913 1 -2 1
1005 0 1 0 -0.6377143807997765 3.6216361062618887 -7.984836533521759 0 -2 0
994 0 1 0 0.19137444373952164 4.351337933159553 -8.31470816432398 0 -2 3
3501 0 1 0 1.9824767332252728 4.080067444730797 -7.504160364714463 1 0 0
974 0 1 0 2.609274267515284 3.9888220343639973 -8.382714856738486 -2 0 -1
3672 0 1 0 3.1137929648035447 3.9061087207006273 -7.467759708768902 0 -1 1
1410 0 1 0 4.2290120978169465 4.277694714063113 -8.097365854562511 0 1 1
239 0 1 0 6.210827975188084 4.100636480021252 -7.725885681839775 1 1 0
19 0 1 0 8.087286208677991 3.904464581159105 -8.201067449190955 -1 -1 1
3682 0 1 0 -7.527430481764741 4.828289188380137 -7.597354041316065 0 1 1
970 0 1 0 -6.6587772393063345 5.252506070362855 -8.14078921322647 0 -1 1
3142 0 1 0 -4.884101311466841 4.913225863511557 -7.659825534427284 0 1 2
1992 0 1 0 -3.841292094560414 5.27856275661503 -7.747682511721255 -1 -2 2
884 0 1 0 -1.9208609881010537 4.782772281236252 -7.820172994436373 -1 0 1
2683 0 1 0 -0.8365633472963013 4.545477347004669 -8.34828821225218 0 -2 0
381 0 1 0 0.9556011776376835 5.247431439995954 -8.09585201083304 1 1 0
1276 0 1 0 1.6910780263639424 5.166740898006006 -7.445797116131696 0 0 0
2472 0 1 0 3.372201287612068 4.7297724273862745 -8.15847390777579 0 1 2
2294 0 1 0 5.129337208821165 4.64283007619798 -8.107743610103524 -1 -1 1
2405 0 1 0 7.558559645221326 4.906164544219544 -8.14016939367887 1 -2 0
2927 0 1 0 -8.203878482326278 5.897956482342151 -8.410012103361808 -1 1 1
1897 0 1 0 -5.612512359347272 5.62105747406371 -7.960132448889899 1 1 2
2778 0 1 0 -4.679586066172693 6.120524469733247 -7.469084851443112 1 0 0
1134 0 1 0 -2.979345080897258 6.325023317840423 -7.524164930366789 -1 2 2
3808 0 1 0 -2.196745820848076 5.91641031235176 -8.072253033611261 -2 -1 1
792 0 1 0 -1.1132263449284492 5.643395894553585 -8.372822154379246 2 1 0
3829 0 1 0 -1.2995494484848855 6.267597572195879 -7.486061424569097 0 0 -1
2286 0 1 0 -0.014283522286860709 5.7142668962252765 -7.743997243017217 -1 0 -2
3283 0 1 0 0.586801312739408 6.265681402142136 -8.316948909892739 -3 0 1
1649 0 1 0 1.6970349507059512 6.117742209388597 -7.825147502098676 1 -1 0
4052 0 1 0 2.7006649564897915 5.969963027697909 -8.000842186649425 -3 -1 1
2272 0 1 0 3.65519473816161 5.912884822160439 -8.046428113378983 1 -1 0
3715 0 1 0 4.569285422994649 5.522495401512024 -8.32651013599407 -1 2 1
3988 0 1 0 6.239180270952703 6.203808796272945 -8.290279447407665 -1 -1 0
1558 0 1 0 5.515437234324259 5.643749822098091 -7.8186205741322805 0 0 0
1009 0 1 0 -7.493205056958971 6.5806286572165265 -8.278553424052168 0 -1 1
2691 0 1 0 -6.4955945601173095 6.631035441114114 -7.880146004006637 0 -3 0
1021 0 1 0 -5.484188781814057 6.6892029080257975 -7.625215653795529 1 0 2
3349 0 1 0 -4.545851456603412 7.183470552787527 -7.734619036475511 0 -1 0
674 0 1 0 -3.826141734237056 6.547178046366551 -8.249893514077343 -1 0 1
3952 0 1 0 -3.108413483398106 7.299149940072903 -7.474676405253023 1 -2 1
1093 0 1 0 -0.6283008516964269 6.462648694951175 -8.168531824868502 0 0 1
855 0 1 0 0.3209337426149408 7.066193484562425 -7.759929715114395 -2 0 0
962 0 1 0 1.4172332038963438 7.161169761519496 -7.8473253116967685 -1 -1 3
2688 0 1 0 2.2783393552339315 7.105365931632401 -8.347177829924938 1 -1 1
483 0 1 0 3.330227071441344 7.080187572148745 -8.297710060411902 1 -2 1
230 0 1 0 5.2694661651881995 6.617752843464245 -7.866127236349494 1 1 2
3243 0 1 0 6.18421742838012 7.217614932596964 -8.398621475054064 0 1 2
1462 0 1 0 7.116265053001613 6.903876693859459 -7.639736890842048 0 -1 0
3416 0 1 0 7.949955682410558 6.506159308232836 -7.898548156025032 1 -2 0
3263 0 1 0 -8.339469605523151 8.261664233934908 -8.088639219770798 2 0 0
2810 0 1 0 -6.58355955053054 7.666258599283551 -7.7524968363749425 -2 -1 1
811 0 1 0 -5.627670929426283 8.20923522576112 -7.832527234058658 -1 1 1
3929 0 1 0 -4.622788272819062 8.316952412384058 -7.8880561658561765 1 -3 1
3805 0 1 0 -3.7105089387518335 7.59642626610879 -8.31738966302023 -2 0 1
3566 0 1 0 -2.1716946250647298 7.988449384998159 -8.107647766686574 -1 1 2
3102 0 1 0 -0.4466993915420459 7.694796810758451 -8.285476550435341 2 0 0
2453 0 1 0 3.14063385352463 8.192513875442492 -7.958965829186341 -1 -1 1
4029 0 1 0 5.200513958483205 7.62073649447519 -7.615345712663903 2 -2 2
3743 0 1 0 7.24222808691834 7.63639430891745 -8.368855809074386 -1 -1 1
3920 0 1 0 -8.107829442985636 -7.481752015677074 -6.566805480004222 1 -1 0
628 0 1 0 -6.473537954727003 -8.373032686228344 -7.110606371578403 1 -1 1
367 0 1 0 -7.1973221263850995 -8.409532077035655 -6.438901735772004 3 1 -1
6 0 1 0 -5.903569626588517 -7.525245907641816 -6.72209973740954 -2 -1 -2
953 0 1 0 -5.00357077878617 -8.279047936515356 -6.83146943420317 -2 0 2
66 0 1 0 -3.734244027538082 -7.855623123116185 -6.8359083812196255 -1 1 0
3604 0 1 0 -2.769866469776124 -7.716708377618221 -7.2041656162672 2 -2 1
2510 0 1 0 -2.0198778399806443 -7.857903026038728 -6.460198040314547 0 0 -1
1347 0 1 0 -1.7523570572999443 -8.349339542964305 -7.355627450250632 1 -1 1
3500 0 1 0 -0.47255829103257224 -8.193353707063771 -7.246286244777085 0 -1 0
1268 0 1 0 1.1185236707828878 -7.883717990367838 -6.674608186577609 -1 -2 -1
2280 0 1 0 3.7042430458692572 -7.953410042425551 -7.283149398200171 -1 1 0
2848 0 1 0 4.947062950863829 -7.769404167859473 -6.655307397619932 1 1 2
505 0 1 0 5.926010297697291 -7.588665923184644 -6.54629863865244 -3 -1 0
2514 0 1 0 8.052695264518047 -8.1902234113913 -7.294467706622637 -3 0 -2
2024 0 1 0 -6.8939844744699545 -7.335330824872862 -6.952857569682177 0 0 1
1381 0 1 0 -6.446893324256371 -6.562890971772995 -6.546409612402721 1 1 1
3983 0 1 0 -5.873087000525494 -6.5390382115002 -7.390238054572093 0 1 -2
2274 0 1 0 -4.5242887660633615 -7.20779279477332 -6.658331187300404 -1 1 1
493 0 1 0 -3.514849037848409 -6.551314581412933 -6.813096115730731 1 -2 0
778 0 1 0 -2.0958683128495648 -6.9408566157494604 -7.042447804425784 0 2 2
3990 0 1 0 -0.9150752132877668 -6.975307119825979 -6.63712809968091 0 2 -1
1765 0 1 0 0.08550007107331399 -7.228858013872511 -7.011629653145796 -1 0 -3
3924 0 1 0 1.0764114402795855 -6.915327417659269 -7.137890400603046 2 -2 1
752 0 1 0 2.089378202174928 -7.414769593858826 -6.958517798765418 1 1 1
2444 0 1 0 2.536564213931719 -6.54117911953956 -6.892811717628506 0 -2 0
3801 0 1 0 3.8191947538850735 -7.112913640087537 -6.717043515222849 -2 0 3
4003 0 1 0 4.791714704922684 -6.687718837016513 -7.116222676043684 0 1 0
1459 0 1 0 6.199933343436662 -6.646269461073441 -6.902250347369542 1 2 0
1364 0 1 0 7.055080535631414 -7.331864222149413 -6.665065767843544 -2 2 1
3492 0 1 0 -6.860486522764242 -5.508313517507399 -6.958011095799533 0 1 0
2648 0 1 0 -5.890823769766357 -5.6485055030372555 -6.807551116899757 -1 1 2
3125 0 1 0 -4.548419943015688 -5.473490777789491 -6.7965781680068496 -2 0 2
1241 0 1 0 -2.691866593399888 -5.959799791212691 -6.814049148018148 0 1 1
2846 0 1 0 -0.8061632228809436 -5.94390773668253 -6.724986228873908 -2 -1 0
346 0 1 0 0.4156910035478506 -5.775208611821341 -7.368547798851773 2 0 0
1840 0 1 0 1.06035301286012 -5.465333307723941 -6.737860652644544 2 -1 1
4044 0 1 0 3.1633529493759536 -5.816548037770778 -7.191235862458972 -1 2 0
3949 0 1 0 4.6339355863113045 -5.608538837063494 -6.761834832399385 -1 0 2
1887 0 1 0 5.776818439712853 -5.663146196997848 -6.682057221639488 0 -1 -1
2181 0 1 0 6.62705656100165 -5.542505622254614 -7.2148448269159 -1 1 2
1974 0 1 0 7.316600647946767 -6.33819312841198 -6.670174159469874 -1 -1 0
3855 0 1 0 8.37232236831036 -6.2626140188124815 -6.940709796301081 -2 2 -1
996 0 1 0 -7.868379998045426 -5.3571551272361315 -6.654688180732365 -1 2 1
188 0 1 0 -5.497339675239479 -4.7434690807788185 -6.509101941407165 3 1 2
913 0 1 0 -3.587681990291408 -5.3980174960064415 -6.484781478996248 1 0 0
1749 0 1 0 -2.9630270004176626 -4.732873034390786 -7.0031196072825 0 1 -1
769 0 1 0 -1.8517361636819494 -4.968860656613089 -7.120328395219198 2 2 0
1764 0 1 0 -1.0003488850953528 -4.80413542097034 -6.542651657843607 0 2 0
3596 0 1 0 0.16904535342972643 -4.711844273276594 -7.105692317737079 1 1 1
1669 0 1 0 2.432949233324577 -5.274383447584638 -6.700476601168899 0 2 -1
1664 0 1 0 3.587481329793309 -4.920372407261345 -7.076239906148308 0 2 1
1687 0 1 0 7.080836785881178 -4.845102084585539 -6.456204055459083 0 1 0
2480 0 1 0 7.786864690177654 -4.976161513458377 -7.30008658120354 1 -1 0
1721 0 1 0 -8.29124552338708 -4.252404603919069 -6.7841058697801015 -1 2 1
2463 0 1 0 -6.3443129116637 -4.2781868933035465 -6.793607371137956 1 -3 0
1174 0 1 0 -5.56999824546371 -3.4823926833215 -6.677493614852195 -2 -1 2
1431 0 1 0 -4.917022422904339 -4.309516384047559 -7.113436603956111 2 0 1
1415 0 1 0 -3.93477784726074 -4.336663664893396 -6.62125213471129 1 1 3
3891 0 1 0 -3.0485820846168434 -3.4847617162934945 -6.949664700505772 1 1 0
3001 0 1 0 -1.2189803512884554 -3.7454321154331587 -6.628877470223648 2 2 -1
166 0 1 0 -0.25855197237912575 -3.8955780648898792 -6.437253940938325 0 -1 0
1284 0 1 0 0.7567631712241528 -3.750255262748924 -6.702699677809129 1 -1 1
2088 0 1 0 1.5487669689318802 -3.6624790066472506 -7.321154910112958 1 1 0
2131 0 1 0 2.2269956830270075 -4.31485645462903 -6.845345829893582 1 0 0
3882 0 1 0 2.884175807079725 -3.5975527929544513 -6.446374820271409 1 0 1
1569 0 1 0 6.049026402295378 -4.327042653662973 -6.866014653029983 0 -1 1
3216 0 1 0 -8.24534302897217 -3.252658946163945 -6.943037741867802 0 1 -1
1866 0 1 0 -6.932426247114442 -3.02584479451599 -6.797693225366864 2 2 0
3853 0 1 0 -6.09170116434247 -2.59358863698078 -6.963652140641012 1 0 0
2308 0 1 0 -4.428850264879966 -3.361799123709105 -6.701457327407617 -1 -1 -1
2298 0 1 0 -4.010123237189956 -2.479730336094341 -6.916670094626616 0 0 -2
332 0 1 0 -1.9268349320762488 -2.824662174938679 -6.856125493695028 2 -1 -2
2841 0 1 0 -0.134581135375018 -2.73554147864747 -6.914201205792863 -2 0 -2
1405 0 1 0 0.9769457015681767 -2.727335570896965 -6.893983122133741 -1 2 -2
4005 0 1 0 1.8850542246918618 -3.3338289345169962 -6.46641060906288 1 1 -1
234 0 1 0 4.299730009528521 -2.7173163755936676 -6.83233187744291 -1 0 0
1393 0 1 0 6.067978426469309 -3.291428977958533 -6.741590346172143 -2 1 -1
4095 0 1 0 7.042109353457299 -3.3623766312124443 -7.362174273401209 0 1 -1
2424 0 1 0 6.97314702778613 -2.652396938211088 -6.71254561266466 0 2 -1
4006 0 1 0 7.656773032236252 -3.439082548214736 -6.566553288333875 -2 1 -2
1277 0 1 0 -7.652377328115409 -2.1749179757955965 -6.856918226117511 0 0 -1
2253 0 1 0 -6.737420069894499 -1.7951096517270448 -7.073248171316939 1 2 -2
316 0 1 0 -5.137400489233482 -2.47120863417662 -6.882179971716057 0 0 2
3419 0 1 0 -3.194271220923604 -1.8414633429474712 -7.314537686183327 -1 -1 2
1856 0 1 0 -1.8836722338488434 -1.7734004122530904 -7.069645038595615 -1 1 -1
3474 0 1 0 -1.0757193365579105 -2.2655855058909453 -7.3086835851560625 1 3 1
2346 0 1 0 -0.3330068242482814 -1.6205511222335245 -6.7636935916305125 2 -1 2
908 0 1 0 0.5168102245239725 -1.7302347600621062 -7.297503456074773 -1 -1 1
2719 0 1 0 2.169786955795806 -2.3302185482811333 -7.090895488428763 -1 2 0
4065 0 1 0 3.174967624099222 -1.601985778603057 -7.166744360003772 -2 1 0
1652 0 1 0 5.4466522290848225 -2.045861719044658 -7.048135413851787 -1 -1 0
1709 0 1 0 8.0820444273546 -2.2137301097117312 -6.584459896431093 1 -2 0
462 0 1 0 -7.630015738076063 -0.9459431968087315 -6.831847283733927 -2 -2 3
3262 0 1 0 -6.571137587726802 -0.7294552423955376 -6.819064931605824 1 -2 0
3477 0 1 0 -5.1498863188346915 -1.3208349673133195 -7.246446849898557 1 1 2
1050 0 1 0 -4.461788584136144 -0.6007583561918901 -6.844946661297784 1 0 -1
238 0 1 0 -3.845925875454877 -1.3296721290657336 -6.477902301646652 0 -3 1
1091 0 1 0 -2.4283867002704635 -0.5010907609022618 -7.178862368592331 1 -2 -1
1425 0 1 0 -1.0884078074513224 -0.8965446164987486 -6.612172780958399 3 0 1
2715 0 1 0 0.2227223319187762 -0.5064380279111471 -6.867858307421262 1 0 -1
271 0 1 0 1.2971792748095738 -0.8525881245360795 -6.8015258404136585 0 0 0
633 0 1 0 2.2984696778133786 -1.2896232991061514 -6.659477956660762 2 0 -2
2037 0 1 0 4.469190036914698 -1.423482797263501 -6.924253967722573 -2 -2 0
2777 0 1 0 5.616220095204249 -0.9448859837478804 -6.635590775808187 0 0 -1
3268 0 1 0 6.7838453626628015 -1.1193754315478988 -6.842204041431749 -2 0 0
421 0 1 0 7.834544178331798 -1.3087110979078307 -7.00580820671446 -2 0 3
3861 0 1 0 -7.727467000871768 0.15288803625946498 -7.075632810541091 0 -1 1
806 0 1 0 -3.229414047483629 -0.43119172596251387 -6.50512516070747 0 -1 0
3537 0 1 0 -2.7504256040662947 0.4207996146633533 -6.741065492847114 2 -2 0
682 0 1 0 -1.7321321463613368 0.3454194226450249 -7.353442607310633 -1 -2 -1
2900 0 1 0 -0.6329807076181321 0.060568654999439815 -6.570398993415698 1 -1 -1
3768 0 1 0 1.4632933312765102 0.43314253800333524 -6.692444141736577 -1 -1 0
525 0 1 0 2.0233743210241655 -0.2567632236567753 -7.378219184268955 -1 0 2
3161 0 1 0 2.884614006266478 -0.39713272086322493 -6.770727383308042 -2 2 1
265 0 1 0 3.70538128101007 0.14478748764866375 -6.564877529601448 0 -1 0
4019 0 1 0 4.673892933815158 -0.3811268738679604 -7.1687593025088185 -1 1 3
578 0 1 0 5.670032137720363 0.03240026044251528 -6.456027105128341 0 0 -1
2141 0 1 0 6.646197626317993 -0.09842046144196752 -6.593367559561981 -1 1 -1
3004 0 1 0 8.04543116316915 -0.3494454705359409 -6.6668628236893595 -1 0 -1
503 0 1 0 -7.21335336856995 1.0741561826206067 -7.380639560450819 -1 0 0
1729 0 1 0 -6.503166013995047 1.287143237277421 -6.715546011516499 0 2 0
2243 0 1 0 -5.763484323690081 0.5245179157395099 -6.736075840697212 -2 -1 -1
3089 0 1 0 -5.01333116171044 1.2137914414479676 -7.346336327856761 1 1 3
872 0 1 0 -3.71618423399786 0.5888160204452173 -6.603452789291776 -1 1 -1
827 0 1 0 -0.6843580697826978 0.983574302902581 -6.538216517065095 -1 0 0
2644 0 1 0 0.43261461014450714 0.6285657106726061 -6.479023739116159 0 0 2
2269 0 1 0 1.4381292042154303 1.3971093579314666 -6.482651425812987 -1 0 0
2043 0 1 0 2.5280666531104408 0.5966158025015669 -7.132085290417122 -1 1 1
131 0 1 0 3.311002523682712 1.3435795210928054 -6.603161687033649 0 2 0
3600 0 1 0 4.343309872856565 0.8381594796596291 -6.942388205442467 1 2 -2
3993 0 1 0 5.392715900895566 0.9114381688294948 -6.79021869035523 0 0 0
1116 0 1 0 7.623029433556609 0.6907371808485736 -7.063273207938795 -1 2 -1
3030 0 1 0 -8.250012299150097 1.587811097786663 -7.011983650106541 2 -3 0
2511 0 1 0 -7.308924342934891 1.9961686031778647 -6.871639198890568 2 -1 1
3187 0 1 0 -5.170199663042675 2.3004568295230317 -6.857773468821976 2 -1 0
1137 0 1 0 -4.00109066999139 1.7350405075428632 -6.665920622991251 -1 2 1
1685 0 1 0 -2.95211998005912 1.530833999685533 -6.885405882462226 0 -1 1
1027 0 1 0 -1.7446329354141121 1.6457787045679058 -6.519406614683501 1 -1 1
3452 0 1 0 -0.7487601277107482 1.9178839965904824 -6.848254846186976 2 -1 1
1982 0 1 0 0.2966923074799265 1.5550430052671995 -7.126810934202789 1 -1 1
3598 0 1 0 2.089570691691993 2.1414775849694965 -6.774111176090913 -2 -1 -1
1170 0 1 0 2.925684202959961 2.014447408473031 -7.329366505082055 1 0 -1
3201 0 1 0 3.934551124381636 2.3133910199780092 -6.439233009267569 2 -1 0
1867 0 1 0 4.803456380569075 1.7390328986031773 -6.61972546172246 0 -2 0
3809 0 1 0 5.758549984478644 1.9532972142426175 -6.877202128475206 -2 0 0
2930 0 1 0 6.829278571378877 1.5383367421658571 -6.747580426058488 -1 0 2
2601 0 1 0 7.626411197857185 1.8269904607328389 -7.381012992673748 -1 -1 1
822 0 1 0 -6.6040248665976415 2.857700304187598 -7.2177792524140765 0 1 2
294 0 1 0 -5.882824029995343 3.1514319033402987 -6.4420127972035415 1 1 1
3959 0 1 0 -3.5598310031454794 2.596697928840891 -7.109870622357601 0 2 -1
2116 0 1 0 -3.026807816080645 3.3094545236003756 -6.524999446892852 -1 -1 -1