ITEM: TIMESTEP
0
ITEM: NUMBER OF ATOMS
4096
ITEM: BOX BOUNDS pp pp pp
-8.4143135181382007e+00 8.4143135181382007e+00
-8.4143135181382007e+00 8.4143135181382007e+00
-8.4143135181382007e+00 8.4143135181382007e+00
ITEM: ATOMS id type xu yu zu vx vy vz fx fy fz
1 1 0.932598 -5.99772 7.86488 1.06921 1.49851 1.52701 40.7818 25.3583 -42.1947
2 1 4.59093 -2.23513 7.17388 -0.508165 0.773986 0.830311 -30.3254 10.5427 -34.6575
3 1 0.588158 -2.22444 6.96511 -0.256162 1.04982 0.6054 -36.3521 23.6768 44.4894
4 1 -6.7553 -7.35659 -0.536807 -1.56588 0.94674 0.220682 9.7299 -48.9323 40.6615
5 1 8.32883 2.59331 -4.15973 0.97521 1.64452 0.810935 44.3461 29.7436 -25.7529
6 1 -6.88429 0.583369 2.17985 -0.929578 -1.47636 1.55535 33.1804 0.0413996 22.7301
7 1 5.58052 8.28265 4.42915 -1.33657 0.087573 1.12524 -40.3653 -11.8466 -39.7696
8 1 3.92326 -2.69383 -1.50056 -1.04173 1.28172 -1.69906 32.4118 21.9706 12.1419
9 1 -1.47671 3.45592 5.03908 -1.06381 0.0283505 1.46026 -23.6974 3.01249 -43.7216
10 1 6.53589 -7.06302 8.7166 1.19812 0.371024 0.997164 -27.4693 -48.3511 27.6539
11 1 -8.99709 7.84227 -2.04084 0.212914 -1.16574 1.66061 37.9423 50.9516 -27.4374
12 1 2.1166 -0.956207 -2.6789 1.11393 -0.529104 1.46143 26.0537 41.5391 -45.1891
13 1 3.23271 -4.41348 1.45467 0.138077 -0.519431 1.5465 43.8732 -1.03685 -19.4482
14 1 2.93836 0.806237 -4.08337 -1.36957 -1.44211 -0.110868 36.8976 -34.5338 -42.2595
15 1 -6.46516 -2.9072 -2.38698 1.70374 0.455044 -0.882642 26.7207 -37.771 44.5993
16 1 2.78027 1.46737 1.0368 -1.37113 0.131551 0.415489 41.2846 39.0864 -48.2386
17 1 1.51534 -2.94737 -3.21185 1.09411 1.6579 0.953801 32.8867 24.9984 -20.3559
18 1 -2.54017 1.30572 -5.52302 0.881066 -0.674647 -0.405758 45.65 -1.35033 -36.0921
19 1 5.23059 -2.64852 -2.8768 -0.278188 0.780786 1.04454 21.7121 -11.6022 29.3416
20 1 -2.67287 -5.42676 1.13095 1.27001 -1.36178 1.62218 -44.3769 10.7713 -42.4533
21 1 8.41321 -4.09332 -6.69316 -1.68247 1.61543 -0.53243 20.6304 10.3922 -11.34
22 1 1.94821 3.13819 2.18153 0.399957 -0.172952 -0.641851 -5.5599 -46.0465 10.8368
23 1 -7.2597 -1.68187 -2.68821 0.620011 -0.980287 0.169022 13.9126 -7.23018 3.39406
24 1 -3.06021 6.97319 -2.01865 0.495838 0.232274 -0.786161 45.1711 48.9523 29.3544
25 1 2.41339 -1.49703 -7.02849 -1.26688 -0.570773 -0.508556 34.2778 9.46844 42.7305
26 1 3.62943 4.33945 -5.76743 0.620299 0.408823 0.156264 -46.1109 -35.3928 -8.77696
27 1 4.78748 -2.65718 -0.760586 0.428315 -0.658212 -0.767397 -29.5335 -24.9141 22.0426
28 1 -3.01474 1.03821 -3.64114 -0.513952 0.31186 -1.14065 21.615 9.07652 22.7535
29 1 -1.92148 -3.52274 5.28364 1.09685 -0.580026 -0.451854 6.74627 -29.8804 22.5302
30 1 -2.37682 -0.289649 0.588712 -0.590764 -1.12469 0.20015 11.3386 -3.64962 5.12049
31 1 -5.74038 -0.867152 2.63529 1.63084 -0.860048 -1.45706 -20.1599 -6.54089 -36.2555
32 1 -7.18736 7.43614 -3.3153 0.53515 0.609398 0.401555 18.0907 -47.1124 -38.2046
33 1 4.46652 8.27067 4.49157 -1.46248 -0.315498 -0.54504 28.8656 -26.0111 -26.5257
34 1 -4.17764 -5.852 -7.74172 -0.64595 1.36674 -0.533242 -5.79451 7.99391 40.5487
35 1 -5.44766 7.96164 -1.56285 0.588784 -0.313081 -1.40726 -33.4396 47.5224 38.5939
36 1 0.365419 -4.59002 5.64076 0.783869 1.01413 -1.18365 13.0304 39.9638 -17.0853
37 1 -2.01533 5.2686 0.250251 1.01561 -0.486416 -0.192662 4.96384 20.9428 16.7167
38 1 -3.32488 2.14867 4.16083 -0.48742 0.237214 -0.733238 34.1585 25.116 -3.37005
39 1 0.295155 0.424492 0.619803 -0.294108 -0.576238 0.990536 24.8816 18.3 35.239
40 1 5.22904 -1.3996 -5.13343 -0.550995 0.0311465 0.0504363 -0.299087 40.1587 -46.7832
41 1 -0.64609 -0.649137 0.365076 -1.19629 -0.06057 0.503172 48.1054 -35.4433 0.430358
42 1 -6.41831 6.73961 -0.707315 -1.45846 1.59342 -0.670017 -15.9885 33.7272 20.5594
43 1 5.62427 5.99087 -3.1837 0.875655 1.73174 0.929839 -27.4812 2.95123 32.549
44 1 -8.11558 7.76069 -2.77825 -0.802232 -1.20501 -1.4409 29.826 47.7411 34.5651
45 1 4.27004 7.253 -3.18786 -1.10753 1.63766 -0.388246 -15.7584 26.4874 21.629
46 1 4.34607 6.57386 -4.31074 0.176723 -0.948748 1.29189 29.2646 33.9738 -9.53574
47 1 -6.7328 -0.917766 5.88544 -0.504245 0.966685 0.0870879 4.16865 -48.1191 7.04605
48 1 -4.83237 0.146532 7.53176 -0.582027 0.513977 0.822716 -49.9478 26.095 11.7624
49 1 4.39554 -7.91845 5.35537 0.00503216 0.241788 0.0789608 -40.3209 -8.06848 -0.0701368
50 1 3.6069 1.95722 0.468914 1.11519 -0.155492 -1.05495 -4.43891 -19.5943 -8.19941
51 1 -2.69851 4.44664 -0.768259 -0.183824 -0.106258 0.136418 -6.91257 34.2737 -0.573537
52 1 -7.69966 -1.40202 1.85606 -1.23097 1.42599 -0.347047 3.65696 22.6084 0.693472
53 1 -3.42553 5.40034 -6.53249 1.15765 1.3766 -0.724055 4.09883 -1.01939 -19.4944
54 1 -6.78153 4.52153 6.02462 -1.5463 1.55413 -0.621875 44.504 45.3902 -17.4582
55 1 -3.17777 4.88088 3.51438 0.999674 1.40479 -0.694079 20.4179 0.91599 -47.8459
56 1 -2.33545 -4.66614 -6.41056 0.972109 1.38029 -1.01512 34.8742 -37.647 28.7263
57 1 -1.40675 2.61623 3.12322 -1.39727 -0.245865 1.23119 -10.9754 -26.3526 8.32838
58 1 0.346566 -0.9351 1.96151 -0.904596 0.0598293 1.56576 -3.27217 28.6604 2.22217
59 1 7.99268 -0.952789 5.76677 0.817453 -1.52247 1.02352 43.391 16.4158 -42.7248
60 1 6.53397 -0.69685 -8.67155 0.731377 0.384333 -0.0420936 -49.018 -12.7964 -19.7432
61 1 1.77993 2.84379 -4.59863 -0.58468 0.877394 -0.181616 -22.9265 -46.9458 48.815
62 1 6.8295 0.745314 0.974883 -1.51946 -0.208898 0.232099 -26.7001 41.1253 39.6399
63 1 -0.859712 3.00672 -1.0699 -0.732981 1.05258 -1.34815 -44.0815 34.0429 33.928
64 1 -3.11087 -0.675292 -4.2661 -1.37375 0.899075 1.19809 18.0969 -26.7816 21.3315
65 1 0.272474 3.92219 -0.996826 -0.549703 0.99881 0.687543 -41.4951 -2.27383 -42.2602
66 1 -4.37444 -6.76394 -6.08971 -0.42968 -0.810254 -1.2364 -26.2313 -7.59449 -26.2493
67 1 8.04551 -2.71901 3.14434 -0.459221 0.535982 0.735507 40.0913 -42.2809 36.9845
68 1 -4.93868 -2.66621 4.92964 0.165661 -0.172892 0.355874 -24.8406 45.8657 10.6397
69 1 -2.24154 -6.34875 0.736059 1.74154 -0.321161 1.08507 34.6164 34.5507 -39.8197
70 1 1.58922 -4.87439 -4.23325 1.39165 -0.109867 -1.7432 31.5087 26.4687 14.1525
71 1 0.71689 7.05799 1.9622 0.315055 0.728007 -0.972363 -3.09579 -4.29306 -13.3222
72 1 -8.36668 -2.58354 1.08267 1.50399 0.268126 0.212177 35.765 -3.46137 -20.7045
73 1 -8.23356 -0.681261 2.505 -0.221635 0.532224 -0.197197 25.6993 -41.8357 -14.657
74 1 -4.26373 -4.45519 -5.53476 -0.643984 -0.162065 -0.903119 36.6756 20.595 12.0966
75 1 1.95885 -7.28636 2.59586 0.200273 0.726198 -0.254806 35.0777 -5.56194 -2.43709
76 1 -7.86215 -1.45301 -7.18898 -0.850996 -1.41749 -1.32823 47.8168 44.4045 -11.4962
77 1 7.55545 -2.87676 5.5238 1.53316 -0.468059 0.644313 4.28694 -5.33371 21.441
78 1 -4.8873 -4.83244 -0.276769 -0.985055 -0.420932 0.990336 -27.1389 45.4157 -18.9551
79 1 0.267341 4.08108 5.47756 -0.458101 -1.38141 0.168806 -7.14728 -38.8921 -3.68847
80 1 3.71897 -7.86302 6.19806 0.333876 -1.02272 -0.828656 5.02418 49.9525 -42.608
81 1 6.43276 5.44521 5.35971 0.174809 1.45895 0.314946 -30.8783 -36.5349 -22.1246
82 1 1.28689 -6.83046 8.4725 -1.59517 -0.509641 0.128785 -20.9078 21.4931 6.01539
83 1 -0.276319 3.29008 -0.0152197 -1.60132 -0.154778 0.565332 30.0575 41.0949 -25.9664
84 1 -7.90328 -0.365834 5.80358 -0.838002 -0.832254 -1.05367 10.9074 -7.22757 23.2634
85 1 -7.94989 -0.0886034 -4.38236 0.515482 -1.51509 0.579479 -30.365 23.6911 14.8207
86 1 7.04702 1.11227 7.31674 -1.6073 -0.263309 -1.5508 18.2211 42.3083 41.8074
87 1 -4.35229 -8.50364 -1.67208 1.52286 -0.60688 1.11825 24.6888 1.70338 -38.9278
88 1 -6.76883 -6.97302 -4.4441 -0.976038 -1.00293 -0.054189 41.6301 -30.1811 -17.3425
89 1 -5.87301 -4.24901 4.46249 0.105452 0.866973 1.00131 8.97201 36.2435 -12.4467
90 1 4.90614 3.32055 -1.66493 0.723239 -1.56359 1.36831 -10.082 -39.5718 -24.5597
91 1 2.15728 3.4214 1.15622 1.25987 1.15002 1.07555 -41.8733 34.3653 21.8925
92 1 -2.99107 5.62024 5.99551 0.430531 -1.44118 1.68707 -17.3577 48.6451 13.0667
93 1 3.46575 3.55333 -7.16275 -0.143462 0.639612 0.00186418 8.379 28.1911 26.7295
94 1 -6.28497 -2.52308 -4.22119 -1.63712 -0.188482 1.08859 40.4529 42.3576 31.2001
95 1 2.68364 -8.42955 -2.81375 -1.64595 0.0175148 -0.879181 37.4649 -49.9737 -6.30206
96 1 -1.22159 2.62146 -5.10573 1.48033 0.192916 1.51979 43.9502 8.87038 43.2821
97 1 3.1376 -8.18212 -0.509448 -0.930619 -1.68712 -0.409721 -35.2345 38.4879 -32.1517
98 1 -3.92671 5.26336 4.21911 -1.19698 -1.29899 -0.941875 -27.9546 2.44029 -13.9231
99 1 -0.668554 -1.72719 4.77429 -1.2237 -0.918124 0.847251 -45.2238 -1.65662 -22.1703
100 1 -6.01249 2.63189 6.3384 0.950669 0.600094 -0.392545 19.2637 -48.9929 -39.5815
101 1 5.06134 -5.88792 3.11207 0.527135 0.730957 0.208452 27.6216 29.3508 -43.4801
102 1 -4.36638 -3.53799 2.49336 -0.594732 1.32859 1.29773 -15.9937 -12.0558 20.5211
103 1 -2.35166 -5.32585 2.99537 0.869833 0.689095 -1.53636 7.77293 41.5551 28.6275
104 1 8.32377 1.71939 0.372249 -1.21997 -0.548166 -0.842409 37.1279 23.9441 34.8602
105 1 5.07183 -7.43235 1.07528 0.665022 -1.61698 -0.555712 45.6104 -24.0115 -2.93559
106 1 -4.11606 -1.2963 -1.67191 -0.219987 0.570636 -1.10427 -13.5358 6.12567 -41.342
107 1 -0.739723 -6.01417 -3.36168 0.689909 -1.6546 -0.183834 2.22763 -35.3723 37.3626
108 1 6.00975 -7.65464 -4.61227 -0.774942 1.08707 0.846361 42.7354 -22.4785 -24.2426
109 1 6.16275 6.71348 -3.76263 -0.168202 -0.305127 0.89834 21.5382 -22.8147 -12.2172
110 1 -2.27601 -6.23735 2.39475 -1.24809 0.510713 1.28458 -3.35657 9.30392 -44.6125
111 1 6.54021 5.84786 7.27627 1.07871 -1.22855 0.524605 -47.523 27.8098 -25.7145
112 1 -5.45561 -7.71203 2.9888 -0.797269 -0.768814 0.336604 -0.370132 49.2472 27.2239
113 1 1.8167 2.63198 -8.64147 -0.596522 -1.08414 0.680472 39.4817 -36.0903 1.0651
114 1 6.35269 -4.37228 -1.97168 1.7243 0.28334 0.0777138 -48.9437 18.2548 -37.5024
115 1 -4.37194 0.974209 8.03162 0.900971 -1.47973 0.203702 -49.5056 40.5484 22.8852
116 1 -1.30576 -6.47142 2.83805 -0.915315 -0.314872 -0.387443 16.5692 15.2201 -28.7395
117 1 -7.24253 -5.83607 2.20607 -0.158378 -1.13112 -0.716693 9.12781 21.2043 13.1294
118 1 -7.81495 -2.49795 6.1392 1.18978 -1.51066 -0.957362 -16.5546 -29.5678 32.3906
119 1 -6.00478 -0.450719 -4.35853 1.23809 1.43091 -0.726262 0.729243 19.2049 -22.4451
120 1 -7.30392 -3.47831 -0.209451 -0.600854 -1.29993 0.424966 -35.7833 -25.5649 -15.113
121 1 -4.2321 -5.29341 -8.65473 1.34277 1.18625 1.52101 -51.2173 -27.0943 -12.3714
122 1 -2.24658 -7.22275 8.51803 -1.13796 -1.60313 0.644802 -37.5833 -33.7214 4.28312
123 1 2.86918 -3.59293 2.55076 0.332943 0.591374 -1.74602 -27.1127 -12.9285 -14.8606
124 1 7.03551 5.19329 -2.00295 1.31612 -0.823569 -0.297387 -10.9301 4.82818 35.2181
125 1 -1.18878 -4.49502 7.35721 -0.863038 0.160211 1.54492 27.6959 39.6779 37.3282
126 1 3.69364 -5.30368 1.85275 -0.321512 -1.33592 0.546984 -29.045 34.1024 -49.4563
127 1 -6.28456 5.70573 -7.0799 -1.51458 -1.17816 0.393934 28.8548 0.123608 -27.9017
128 1 2.07176 7.89439 5.92199 -1.62994 -0.506895 1.35027 46.7645 -41.4982 -50.7629
129 1 7.78026 2.79972 -5.11362 -1.19876 -0.0762899 -0.949505 1.68503 41.0967 -21.2572
130 1 -4.59688 -7.60021 1.30791 -1.54108 -0.59399 -0.0546612 -38.7188 25.7841 34.3234
131 1 4.63379 0.33566 -3.86388 -0.917211 -1.06165 -1.68298 33.3589 29.3164 27.5461
132 1 -0.831826 7.11033 0.209623 -0.476421 -1.58764 1.62541 41.3089 -26.7851 13.4433
133 1 -4.86333 4.56176 2.63453 0.700457 -0.695369 0.500676 -8.8974 40.8796 34.1595
134 1 -6.05494 8.11423 2.12641 1.52481 1.09501 -0.516631 -50.033 -43.8909 49.5629
135 1 -6.03415 4.72039 -3.44008 -0.269856 -0.923223 1.58201 -47.8335 21.7393 -46.9789
136 1 -2.96236 -2.83045 0.584138 0.734161 -1.23473 0.392511 -41.4956 12.8873 36.1099
137 1 -1.63974 -4.90237 -4.28494 -1.34802 1.2772 -1.4694 -10.3293 30.3482 -46.1881
138 1 2.17494 -1.52202 -0.581354 0.50888 1.62294 1.16633 -13.9866 12.2844 18.6726
139 1 -5.56619 -0.425946 -0.357743 1.53096 0.589568 -0.980113 -23.5096 -3.73867 26.4615
140 1 8.31057 6.29596 3.22171 -0.838252 -1.5871 0.263474 16.8717 27.4464 0.307099
141 1 3.55122 2.31208 2.60688 1.08208 0.128186 -0.833204 1.82821 36.4512 -26.584
142 1 -1.40562 -7.06489 4.19571 -0.208822 1.52599 0.00724603 39.5614 -31.2152 5.08554
143 1 -0.141574 -2.21411 1.6019 -1.07281 0.852756 0.59308 -8.73807 -32.5476 -24.8965
144 1 0.991962 5.7806 1.0552 -1.20441 1.74076 0.377905 48.1334 13.997 38.0371
145 1 1.49492 -5.85652 1.19293 -1.36799 1.00942 -0.712686 -3.68167 25.5093 42.6251
146 1 0.46395 2.08471 4.71853 -0.605539 -0.5187 -0.00752022 41.9714 -30.0916 47.4009
147 1 2.39595 3.77016 8.89552 -0.327452 -0.906711 -0.939921 -45.5862 14.4866 41.4053
148 1 -2.72992 4.46583 0.653267 0.50116 -0.217354 -0.144356 10.8778 -35.2564 5.54347
149 1 -7.19982 1.52958 3.90317 -1.06485 -0.116764 -0.122183 9.43737 -15.682 -22.6546
150 1 -7.53298 -6.86005 3.03521 1.67828 1.35344 0.635568 35.9185 -41.3753 3.96648
151 1 8.17221 5.99208 4.53127 0.705056 0.541933 0.493155 24.7949 -30.5663 -36.9125
152 1 1.63962 3.26153 3.313 -0.421902 -1.46138 0.908689 -34.4382 32.5553 -26.3053
153 1 -3.95178 -1.60629 6.6579 -0.172941 -0.429406 0.315055 -6.85909 -37.8254 -44.4127
154 1 -0.243546 -5.05065 6.45961 0.235684 1.23431 0.246768 25.3416 -43.0642 6.05695
155 1 -6.15067 2.27744 -0.142341 0.338801 -1.20883 0.127447 -33.8299 -3.90707 37.371
156 1 0.412676 8.15446 -2.33558 0.109132 0.485188 0.990599 -20.0913 14.136 26.7375
157 1 2.58235 -1.7196 0.430892 0.497517 0.794604 1.64713 37.6999 30.4599 10.8437
158 1 3.50849 -2.21859 7.3472 -0.673339 0.849436 0.113988 -37.1641 42.3854 49.0019
159 1 0.469032 1.17881 -6.91312 -1.36884 0.510065 0.764818 15.6569 -15.256 -22.6628
160 1 -7.07404 6.85513 -6.50575 -1.59831 -1.41779 0.597369 -5.0748 -7.64335 -10.582
161 1 6.09075 -4.60619 -3.01404 1.74966 1.22839 0.950887 -41.1886 -14.8327 -3.84255
162 1 -1.47723 -1.45736 1.4417 0.317518 0.634305 0.691846 -3.58693 4.63881 33.8689
163 1 0.896551 -3.79043 2.85988 -0.722567 -0.245039 1.28842 9.4682 44.0584 20.5505
164 1 3.33009 -2.01568 5.11802 -0.0569577 -0.990506 1.27848 -1.73644 -18.053 -14.975
165 1 -7.20291 5.81043 8.21386 -1.22793 0.572958 -0.105618 39.681 28.8153 45.6827
166 1 5.08332 4.45951 4.541 0.0524242 1.59384 -0.48552 -9.96891 -24.5479 36.0733
167 1 6.65425 -1.80175 -3.069 0.570678 -0.37594 0.0373927 11.5648 -45.9596 29.4372
168 1 -5.54924 -6.86247 0.766152 0.84426 -0.420488 1.53486 -43.2039 -7.46273 -6.40675
169 1 -0.725058 -1.14947 -1.78271 0.0729151 0.260006 -1.41974 -7.99602 -9.8707 13.1057
170 1 -5.89576 3.57709 -8.52425 -1.4739 1.38993 -1.39427 -4.36141 -44.3126 15.1721
171 1 -2.82161 -6.88485 -6.97485 1.2651 -0.893734 -0.634701 -29.6019 -9.04221 -16.2595
172 1 -6.71936 3.5412 0.0074375 -0.208114 -0.403489 0.294484 -23.5012 -47.3839 -18.6439
173 1 4.83084 -0.322192 6.44093 0.225074 -0.768805 0.50309 40.6048 42.5776 11.3278
174 1 -1.36574 0.719231 -8.07483 0.620465 -0.255962 0.937213 -19.4357 -39.4794 24.1942
175 1 7.94221 6.78384 -7.464 -1.3291 1.16796 1.68714 -28.2608 -0.503617 32.7832
176 1 -1.31213 -2.31735 6.85713 1.08975 0.977628 0.775491 -47.7476 -9.61097 -37.1098
177 1 -1.02418 4.37042 -4.80296 1.46425 -0.422263 -0.63023 23.3284 -22.196 46.5705
178 1 -0.739945 7.11319 6.01917 -1.11881 -1.30592 0.131333 3.73162 -19.0434 26.9774
179 1 0.0734955 7.81148 6.35012 -0.254799 -0.242055 -0.416306 48.4711 -36.7872 21.9067
180 1 -1.72226 3.64571 3.20343 -1.25014 0.709037 -1.72022 -41.5904 20.8116 39.0031
181 1 -7.24672 5.50411 -7.59316 -0.69322 -1.38376 -1.42508 26.0325 -17.0651 32.6854
182 1 4.86146 3.0688 -3.37209 -1.44802 0.702147 0.0114887 -39.5364 3.60268 -16.0515
183 1 3.16469 2.7938 -3.23424 1.08865 -0.131281 1.35032 -29.6903 14.4187 10.8908
184 1 -8.57695 -7.91817 2.39265 -0.342816 0.153237 -1.57609 -0.194327 -16.6915 -1.3563
185 1 3.96087 -3.90768 7.61494 1.70276 1.33788 -1.59348 -46.7248 12.3244 14.8195
186 1 2.94943 5.76826 3.8053 -0.1933 -0.347889 1.2989 -13.3951 38.1676 -30.86
187 1 1.09682 4.44162 -0.486624 -0.216885 0.848748 -1.07984 -12.1992 -38.8061 15.4962
188 1 5.19556 -1.54046 5.17458 -0.13703 1.56617 1.21067 -37.1076 -50.5561 -30.2056
189 1 -0.395329 -6.14897 -0.913754 -0.0796379 1.57769 1.29643 -43.6661 -18.8021 1.81971
190 1 -8.65871 -4.41292 1.85248 -0.371167 0.761637 0.722246 25.048 -44.521 47.7928
191 1 6.67304 -7.19705 6.91315 -1.45088 1.14082 -1.58478 -3.35006 11.8585 -36.8368
192 1 -1.55579 0.425113 3.24281 0.876423 0.810303 -0.717953 45.8276 13.5528 -34.3475
193 1 -7.01137 -3.79373 -2.59156 0.759369 0.667547 -0.689296 1.59689 20.5068 4.09235
194 1 7.9668 0.359702 5.7211 -1.61807 -1.57886 0.534166 -1.1258 -32.3514 21.9236
195 1 -3.56931 -3.3588 -5.41851 0.864188 -0.846089 1.5133 9.07098 15.5053 -38.7567
196 1 6.53387 6.47592 -4.74248 0.696452 1.12841 0.814706 -36.9807 32.8001 -34.8852
197 1 -2.93185 -0.741793 3.90174 0.218181 0.93171 -0.0074331 33.233 -14.6184 -18.5968
198 1 2.02992 -7.20996 1.48548 1.13677 -0.32795 1.07223 -20.2309 47.1628 -4.26465
199 1 5.64044 5.44138 7.72684 -0.0108962 -1.2578 -0.226058 25.1723 43.5307 49.0585
200 1 -2.87614 5.89206 3.71427 -1.68921 -0.932144 0.309979 22.8327 -38.9632 -32.9588
201 1 -1.99852 1.98161 -2.29004 1.35352 -1.36076 1.3857 29.8343 -16.353 4.57884
202 1 4.44719 3.32248 3.24915 -0.36771 0.0916651 0.757221 39.617 -20.9778 -9.17961
203 1 7.59178 1.61805 2.46388 -1.36932 -0.600806 -0.517955 29.7461 40.2056 -6.77954
204 1 7.95714 5.07984 4.03891 1.68685 0.150316 1.19149 -12.4115 -0.851786 -9.1704
205 1 7.50566 -2.23425 -1.17481 -0.783065 -0.594472 -1.23669 -26.0488 43.751 27.786
206 1 4.48155 -5.12216 -2.34996 1.44955 1.38687 -0.978653 18.1174 -46.8302 47.2048
207 1 -5.5751 4.51275 4.93434 -0.497114 -0.188297 0.745198 -27.7074 -9.90065 31.9393
208 1 7.71499 2.55694 3.05531 0.538112 -1.46326 0.415496 5.56511 -24.6148 -15.5574
209 1 -4.99389 0.551337 -0.074102 1.20104 1.09554 1.48011 44.8824 -4.00688 -26.3756
210 1 7.08746 1.39588 -2.36961 -0.55258 1.04057 0.72374 -43.2751 18.5724 3.14771
211 1 8.29009 2.97566 7.45971 -0.55365 0.342964 -0.409593 -36.1261 -43.8398 -14.4072
212 1 -6.42935 -0.443228 1.91973 0.94615 0.713295 0.700834 30.7449 -36.4287 11.9656
213 1 6.90904 0.505667 6.33229 1.68851 0.33273 0.436918 30.5758 0.801222 15.4649
214 1 6.58455 6.44745 8.20443 1.69699 1.14898 0.821366 -42.1097 -48.8515 -16.2262
215 1 5.52463 -6.89311 0.256083 1.51423 -0.42532 -0.1609 -19.5564 43.2725 10.128
216 1 -3.45751 1.17217 4.66211 0.930619 -1.02723 -0.492201 -20.2511 29.3931 19.6258
217 1 -0.00298694 -1.23593 5.48536 -1.08865 0.890014 1.03078 -27.0607 -1.20275 22.5771
218 1 -4.15426 7.64366 0.43218 1.61508 0.510668 0.520068 -41.2074 -14.1746 -30.5456
219 1 8.1319 -4.99208 5.49222 -0.99634 0.0562376 -0.0267481 -34.7198 47.1903 -39.8033
220 1 -6.00743 5.02105 -0.307518 1.49041 0.296675 -0.512603 -40.8403 -23.6314 -37.402
221 1 -4.83593 6.89202 -2.80122 1.7455 0.575525 1.55248 -31.3029 14.2519 1.7748
222 1 4.89148 -3.64693 3.15253 -1.21851 -0.0955495 0.334053 31.7172 -23.1441 42.3087
223 1 -5.87257 6.45767 -4.81929 1.47148 0.0466493 1.31361 27.0241 -33.1711 -1.10054
224 1 0.70305 3.67666 -4.16549 1.4154 1.3714 1.65506 13.8522 22.313 -21.7203
225 1 -4.36168 5.90266 -3.00017 1.12972 -1.36002 0.102717 -7.0873 13.2813 -29.1193
226 1 3.62329 6.08944 5.51338 -0.660003 0.276193 0.959711 22.7063 39.5161 43.5104
227 1 -0.677862 6.62502 8.00819 -0.0501217 -0.187043 1.07054 -19.669 21.9642 -49.4182
228 1 -2.52485 -7.07182 -0.189845 -0.814608 1.67245 0.0271566 -29.0118 11.7796 7.77007
229 1 7.56311 -2.2786 4.62558 1.6691 -0.92037 1.14128 -38.6527 -33.0113 11.6302
230 1 4.50899 3.73407 -7.42273 -1.116 0.961945 -0.0561046 41.7176 -11.2724 -12.1591
231 1 -7.83866 -4.77102 6.47018 -0.974866 1.41652 -0.515731 -29.7033 24.886 -46.5406
232 1 -0.784364 6.3979 -1.77207 1.0267 -0.67953 0.49908 -41.2787 -41.5437 37.9357
233 1 0.023794 -5.17759 -7.86127 -1.10199 1.34491 -1.01214 24.066 4.48459 49.1927
234 1 -2.28358 -8.22095 -7.6964 0.235243 0.738707 -0.905443 13.7731 -45.1228 -15.2756
235 1 7.86601 6.14219 6.35575 -0.83788 1.20752 -0.681339 17.0603 36.5045 -27.1244
236 1 -3.10864 3.47208 0.554451 0.732663 1.24671 1.23967 1.79741 1.85873 10.575
237 1 -5.33498 2.23679 3.50699 -0.0265721 1.48411 1.54532 27.9882 15.4798 16.4527
238 1 1.15058 -1.08214 2.66951 -0.41717 -1.44127 0.0382558 -15.7336 31.9424 48.4082
239 1 3.20358 1.50583 3.2768 1.52225 -0.471957 0.820924 -34.1167 -27.2206 42.5765
240 1 -0.417806 3.82405 -5.73045 1.00025 0.793592 -1.53123 -8.3249 -3.43295 38.9416
241 1 -3.37545 -5.03638 3.12552 -1.57422 -0.968085 1.26085 32.2019 33.3207 -46.2165
242 1 2.21302 8.37605 -1.76751 -0.131079 1.31491 -0.330863 11.2523 -10.6399 -29.6468
243 1 -0.554821 -1.28575 -5.03047 0.0349928 -0.966815 -1.58754 -14.8028 -0.119425 44.5889
244 1 -3.16059 -2.26401 1.64052 -0.609309 -1.65983 -1.63163 -37.1754 -28.565 11.2479
245 1 5.68777 0.169895 -4.72111 1.66162 1.35389 1.30093 -22.8123 30.1736 29.5437
246 1 5.33976 2.69211 -2.461 -0.67315 0.570088 0.0506501 28.5883 3.82202 -25.9899
247 1 -2.48332 -5.00439 -5.34493 -1.05946 0.507798 0.693138 -9.02143 -11.3431 -18.0007
248 1 5.89249 2.25265 4.27788 0.25987 -0.231507 0.535594 -45.4175 30.4836 -17.4606
249 1 -5.04293 6.8717 5.10629 0.655676 0.350026 0.727892 -15.0404 17.8356 -33.2872
250 1 8.18508 -6.28269 -0.80568 0.0875524 0.803487 -1.17573 -2.83765 -38.509 1.38071
251 1 4.18946 -5.36975 -0.0231113 -0.668723 -1.08167 0.679984 1.92686 12.6685 -31.7441
252 1 2.6314 7.0785 6.36624 0.441827 1.72262 -0.26361 -49.509 39.3104 3.96625
253 1 -5.83589 7.50289 -2.57756 -0.155444 -0.228106 -1.08151 -8.77452 -27.1957 -16.3168
254 1 -2.85104 -6.36146 6.00737 -0.515016 -0.289934 0.406445 29.501 -0.489743 37.3378
255 1 6.90576 -4.75781 6.80098 1.20838 0.0672894 -0.970523 -34.7429 -10.7473 -9.16252
256 1 -1.69367 3.72004 -4.2535 1.30797 0.517186 -0.54791 8.99712 -46.8095 29.3703
257 1 -1.38527 -0.211684 1.04003 -0.47453 -0.916597 -1.13879 -12.1576 -34.2903 38.9807
258 1 -4.934 -7.36229 0.0466516 1.22837 0.584947 0.870792 -35.6017 34.3416 10.0741
259 1 -4.41923 6.31148 2.49869 -0.982478 1.39337 0.990464 14.3232 35.0387 -5.19605
260 1 -5.99767 2.62021 -1.15853 1.68841 -1.2975 -0.0876692 19.0397 37.4006 47.5252
261 1 -6.9382 -6.26208 -6.65701 0.934108 -1.16892 0.0398411 -48.7825 -7.45889 27.5887
262 1 3.32344 1.70232 5.22983 0.508257 1.51721 1.22479 -35.7562 -19.6919 -15.0964
263 1 -3.11585 6.39363 2.7643 -1.17295 1.57615 -0.492785 -18.8556 -39.2854 -11.4186
264 1 5.59392 -5.65762 -6.51311 -0.523104 -1.39904 1.13567 -38.3477 8.94233 -4.45496
265 1 -4.36131 2.58652 0.408556 1.39551 -0.998934 1.38303 30.1306 -15.4754 44.7603
266 1 -2.01993 -0.769883 -7.40161 -0.359236 0.772033 -0.873118 19.4231 -7.54598 2.23812
267 1 5.99702 -1.12789 1.42965 -0.341791 0.103347 0.0311109 23.7965 -22.0393 -42.5601
268 1 -7.42874 -4.90782 -3.47286 -1.01617 -1.34378 -0.0338795 -45.3046 -38.5761 -19.3699
269 1 -7.27191 0.258476 6.43034 -0.819777 1.22692 0.468021 7.80235 8.91279 -44.3795
270 1 -5.89408 0.362026 3.91274 -1.06378 0.634253 -0.179547 -44.5523 15.3729 32.0256
271 1 8.14665 7.85359 -7.45502 -1.32574 -1.17643 -1.57244 -41.5687 21.3948 -36.11
272 1 -6.21346 2.69254 2.62692 0.742078 0.459478 1.03002 12.7176 -35.9297 -7.65209
273 1 7.03995 -0.658083 -3.73407 -0.668571 1.46925 0.63868 -3.63948 36.6286 -23.953
274 1 6.96204 3.7421 -0.814181 1.14351 -1.18669 -1.3117 -15.2028 -14.8447 15.4881
275 1 -6.69212 -4.59342 -0.231744 -0.79431 0.550752 0.055625 8.82777 -42.4383 -29.375
276 1 -1.7993 -5.90161 7.02612 -0.420796 -0.144209 -1.58023 -0.417659 25.997 39.9112
277 1 4.52727 -0.714859 -7.67676 1.26823 -0.209513 0.25633 -33.1315 -1.92737 11.4434
278 1 2.32599 -2.69324 6.40677 -1.44895 -1.05542 -0.719104 -21.4984 -25.1866 37.2283
279 1 7.33398 5.30868 -7.24158 -1.2977 0.042119 1.23159 -24.1305 -15.4965 -39.3128
280 1 -7.73959 -4.56417 -5.95937 -1.10453 0.138973 0.701243 11.0607 -34.1889 -21.2456
281 1 2.37773 -3.30297 -1.06357 1.64992 1.6559 -1.55281 -12.2707 -37.2863 -29.155
282 1 0.46196 -7.78414 6.31797 -1.16725 0.493388 0.504785 -2.14326 41.5971 39.863
283 1 7.16806 -6.34305 8.23991 1.43773 -0.073198 -0.843183 -45.4968 -38.0967 -24.5119
284 1 -5.08143 -6.9014 -1.10956 1.47934 0.867108 -0.186339 42.636 -38.4401 -42.8622
285 1 7.24652 -4.58509 2.73285 -1.38682 -0.960556 -0.107703 -14.9648 -17.543 40.8676
286 1 -5.12782 7.69975 -3.47317 -0.413869 -1.28198 1.4296 -12.6225 -31.4077 14.2788
287 1 -8.01885 -7.06326 -0.356391 1.02674 -0.118705 -1.6315 -8.87326 -41.2963 -19.389
288 1 -2.47124 -8.30916 5.39697 0.389853 -0.586711 1.29222 -3.29546 -13.1802 -5.8846
289 1 2.17498 3.40147 -5.58799 1.50424 1.06286 -1.49668 -37.5884 15.9342 -12.9058
290 1 -4.81468 -4.43211 -4.35372 -1.61022 -0.937171 -1.20836 6.5426 -42.9354 4.99988
291 1 1.75176 -4.0662 -2.69865 0.536097 -0.762883 -0.225733 27.2191 -44.6543 -17.8132
292 1 -5.4268 -4.38442 1.77363 0.316765 -1.64156 1.24553 15.1373 -29.4342 9.80812
293 1 6.65146 6.71383 -5.85254 1.51994 -1.247 1.55618 27.228 9.52652 -20.1052
294 1 5.0385 0.308799 -7.54966 -1.13363 -1.37772 -0.150989 -4.71224 47.5784 -45.7188
295 1 0.211476 -4.09901 -1.93062 1.54382 -0.931091 0.725562 41.2034 -30.0024 25.5571
296 1 -2.50696 6.57534 5.84137 -1.03388 1.7228 -0.748948 25.9302 -52.1035 15.534
297 1 7.13369 3.42793 3.19989 -1.59193 -1.38224 -0.0585411 27.2933 37.3401 -3.29832
298 1 1.57199 -7.87176 -2.45717 -0.43796 -1.66872 1.07185 27.7973 13.4216 -47.499
299 1 8.41295 4.61006 -4.549 0.46522 0.758847 -1.21627 -36.0455 -2.21264 17.4511
300 1 -5.66351 -6.63023 -1.96652 -0.993923 -0.808175 -0.859907 32.9752 22.8777 14.0567
301 1 7.85034 3.63218 -7.50459 0.432416 -0.874603 -0.618701 12.7745 -31.8142 11.8267
302 1 -1.78841 5.10225 6.11453 -0.971308 -1.01237 0.322529 4.94793 -33.2665 -32.3555
303 1 7.51644 1.06615 4.99861 1.38228 1.35703 -1.19578 35.1014 -15.8432 -8.64795
304 1 -2.07331 -3.03794 2.72091 1.13022 0.164349 -1.51694 -38.0836 37.9322 -41.851
305 1 1.76404 -3.82632 -8.35726 0.0670819 -0.976213 -0.502452 -21.5604 -8.3058 35.582
306 1 -0.17272 4.12591 -3.68963 -0.510389 1.41395 1.22043 41.6867 -46.884 -47.2145
307 1 -7.54555 -2.409 8.17661 1.53714 0.839796 0.587009 24.0204 -8.45181 -9.85568
308 1 2.54321 1.68922 -2.6156 0.479066 -1.62562 -0.628413 -21.627 32.2084 -16.2648
309 1 -8.26587 -3.09516 5.16691 1.74861 1.01414 -0.904846 7.76354 3.79498 -37.9303
310 1 -8.00424 -7.38169 1.63979 -1.17847 -1.3257 -0.431353 -4.46194 -27.4477 10.98
311 1 6.90943 4.84807 -0.932599 1.70314 0.774663 -1.60541 -25.7358 15.685 -20.2379
312 1 0.805823 -5.0013 8.25814 -0.217902 1.04924 1.2519 -32.8088 -28.8884 -10.493
313 1 -3.43088 2.72925 -0.148972 1.54204 0.260354 0.973266 7.25776 -23.5402 18.9827
314 1 -8.75205 3.39657 0.130889 -0.397573 -0.51455 0.609628 -18.553 -3.05148 -17.5721
315 1 0.0221977 7.16521 -1.86885 0.350554 -0.750214 -1.6558 -6.17915 27.7098 28.0814
316 1 1.38722 5.47362 5.90688 -0.0148785 0.955525 -0.777943 -9.46332 -25.5439 22.6767
317 1 -7.62808 1.25813 -5.34613 -1.44069 -0.452569 1.6832 34.0295 14.8672 -31.8654
318 1 -0.243786 7.94729 4.09027 0.531633 0.276314 -0.453977 47.5014 30.0259 -37.6966
319 1 -4.12308 7.40512 4.02589 -1.69927 -0.714052 1.10464 38.0941 -42.7036 -15.0679
320 1 3.57436 -2.71431 -5.2489 -1.58083 -1.39929 0.344132 18.4624 42.7624 46.9574
321 1 0.850682 -0.946726 -3.02006 1.44993 0.947744 -0.187479 22.3433 14.1508 9.18821
322 1 2.25517 5.16874 3.24704 0.190504 -0.970943 1.63356 -3.85701 -11.541 42.9163
323 1 8.40925 5.34879 1.06644 -0.652582 0.529559 -0.0427735 -22.5312 -0.779111 -33.9796
324 1 -3.53901 -3.55801 -6.5135 -1.64097 0.749045 -0.0179899 -33.3762 -2.03658 -6.85411
325 1 7.20462 -0.0460261 -4.89743 0.0279402 1.50293 -0.334955 -38.647 19.6502 -13.5323
326 1 -0.397565 2.02243 6.55763 0.407858 1.24589 1.17088 45.5021 23.0894 23.7429
327 1 1.29705 2.04489 -3.99348 -1.45031 0.309806 -1.08395 -26.106 6.94118 24.3648
328 1 -5.57722 6.08629 -2.88731 -0.0714046 1.66447 0.862984 47.9398 -25.6152 43.7088
329 1 5.04142 -6.2151 8.43299 -0.824694 1.56985 0.870685 29.5114 32.1669 18.0964
330 1 3.28417 -0.0641817 -0.255756 0.690584 -0.687032 -1.13555 15.791 43.7743 48.6576
331 1 -2.0958 -1.3205 3.49539 0.341126 -0.162257 -0.671067 37.9361 22.3625 -20.0499
332 1 7.59553 -0.982343 -6.96098 0.512347 1.11483 0.714001 -2.70903 29.9679 -11.455
333 1 -3.52009 6.51999 -1.15741 1.71982 1.07818 0.133777 -11.7484 -33.0209 -23.2829
334 1 -7.73249 2.12607 1.02694 -0.67138 -0.791956 -1.39241 -25.9501 24.2099 9.75645
335 1 6.77949 -5.71206 0.249088 1.44494 0.0170961 -1.00228 36.8661 11.8806 -6.60846
336 1 4.67606 3.27131 6.05622 -0.0842297 0.462991 1.29606 -26.3533 -4.64767 5.16303
337 1 3.9328 2.25537 3.61514 0.357614 0.357751 -0.812486 2.50531 -40.25 -34.7231
338 1 7.75262 7.92905 2.32304 -1.18799 1.19724 -0.538977 3.87643 28.4533 40.77
339 1 1.67139 -8.15552 2.02278 1.00157 -1.33545 1.66779 38.0217 -20.2352 -21.0773
340 1 -3.20051 -4.00733 1.31801 0.716753 0.0558247 -0.0519568 -38.7274 47.138 36.1969
341 1 -6.01105 -2.38142 6.69122 -0.407016 -0.193652 0.633352 14.5264 -5.23021 11.0172
342 1 -1.68854 -7.77019 -0.129999 1.48442 -0.164986 -1.59043 -36.6906 -40.2587 20.0692
343 1 -6.08307 -8.37231 -3.01391 -0.751271 1.34413 -0.234889 40.489 9.99046 48.1711
344 1 -6.74024 -2.58467 3.79 -1.45277 0.488225 0.172576 42.3277 -14.1927 -42.2938
345 1 -2.73041 0.296406 7.04867 1.46462 -1.16357 0.112481 -11.9075 22.4396 3.13073
346 1 5.56007 7.56974 -5.60248 0.950878 0.661077 1.21154 42.9771 26.5343 12.7909
347 1 5.02404 5.53779 -5.25782 0.849451 0.387665 0.642609 43.6172 10.3033 12.2011
348 1 1.61272 -2.13676 -1.36391 1.50078 1.57168 0.407633 -36.8347 -30.8243 -44.8115
349 1 7.44003 -7.01191 -1.45031 0.433396 -1.68541 0.623143 -15.7604 -11.5758 43.9628
350 1 -7.7456 7.52477 -7.03337 -0.692361 -0.786512 0.221785 -4.16007 -27.0447 23.1622
351 1 4.61082 -5.25384 -5.62826 -1.21565 -0.486326 1.31453 -44.1053 -44.1232 15.1037
352 1 -7.47802 -7.80852 2.48679 -0.316588 -1.54928 -0.0822432 -38.3504 -41.1521 38.8323
353 1 -0.873019 -5.34909 -1.43803 -1.21572 -1.67026 -0.64731 -38.5106 -43.5882 41.9927
354 1 -5.77547 -4.82183 2.74978 -1.23787 -0.495412 0.736294 0.54711 -34.119 45.8542
355 1 -4.35997 -0.785669 7.23478 -0.448756 0.112891 1.4113 -47.014 34.1884 37.6773