
     Program PWSCF v.7.1 starts on 17Apr2025 at 12: 0:39 

     This program is part of the open-source Quantum ESPRESSO suite
     for quantum simulation of materials; please cite
         "P. Giannozzi et al., J. Phys.:Condens. Matter 21 395502 (2009);
         "P. Giannozzi et al., J. Phys.:Condens. Matter 29 465901 (2017);
         "P. Giannozzi et al., J. Chem. Phys. 152 154105 (2020);
          URL http://www.quantum-espresso.org", 
     in publications or presentations arising from this work. More details at
     http://www.quantum-espresso.org/quote

     Parallel version (MPI & OpenMP), running on      12 processor cores
     Number of MPI processes:                12
     Threads/MPI process:                     1

     MPI processes distributed on     1 nodes
     502853 MiB available memory on the printing compute node when the environment starts

     Waiting for input...
     Reading input from standard input

     Current dimensions of program PWSCF are:
     Max number of different atomic species (ntypx) = 10
     Max number of k-points (npk) =  40000
     Max angular momentum in pseudopotentials (lmaxx) =  4

     R & G space division:  proc/nbgrp/npool/nimage =      12
     Subspace diagonalization in iterative solution of the eigenvalue problem:
     a serial algorithm will be used


     Parallelization info
     --------------------
     sticks:   dense  smooth     PW     G-vecs:    dense   smooth      PW
     Min          48      48     15                  771      771     135
     Max          49      49     16                  774      774     137
     Sum         583     583    187                 9257     9257    1639

     Using Slab Decomposition



     bravais-lattice index     =            2
     lattice parameter (alat)  =      10.2612  a.u.
     unit-cell volume          =     270.1072 (a.u.)^3
     number of atoms/cell      =            2
     number of atomic types    =            1
     number of electrons       =         8.00
     number of Kohn-Sham states=            4
     kinetic-energy cutoff     =      40.0000  Ry
     charge density cutoff     =     160.0000  Ry
     scf convergence threshold =      1.0E-08
     mixing beta               =       0.7000
     number of iterations used =            8  plain     mixing
     Exchange-correlation= PBE
                           (   1   4   3   4   0   0   0)

     celldm(1)=  10.261213  celldm(2)=   0.000000  celldm(3)=   0.000000
     celldm(4)=   0.000000  celldm(5)=   0.000000  celldm(6)=   0.000000

     crystal axes: (cart. coord. in units of alat)
               a(1) = (  -0.500000   0.000000   0.500000 )  
               a(2) = (   0.000000   0.500000   0.500000 )  
               a(3) = (  -0.500000   0.500000   0.000000 )  

     reciprocal axes: (cart. coord. in units 2 pi/alat)
               b(1) = ( -1.000000 -1.000000  1.000000 )  
               b(2) = (  1.000000  1.000000  1.000000 )  
               b(3) = ( -1.000000  1.000000 -1.000000 )  


     PseudoPot. # 1 for Si read from file:
     ./Si.pbe-nl-rrkjus_psl.1.0.0.UPF
     MD5 check sum: 78279d3766ecb5dbdc0623f3e93c9a23
     Pseudo is Ultrasoft + core correction, Zval =  4.0
     Generated using &quot;atomic&quot; code by A. Dal Corso  v.6.3
     Using radial grid of 1141 points,  4 beta functions with: 
                l(1) =   0
                l(2) =   0
                l(3) =   1
                l(4) =   1
     Q(r) pseudized with 0 coefficients 


     atomic species   valence    mass     pseudopotential
        Si             4.00    28.08600     Si( 1.00)

     48 Sym. Ops., with inversion, found (24 have fractional translation)



   Cartesian axes

     site n.     atom                  positions (alat units)
         1           Si  tau(   1) = (   0.0000000   0.0000000   0.0000000  )
         2           Si  tau(   2) = (   0.2500000   0.2500000   0.2500000  )

     number of k points=    10
                       cart. coord. in units 2pi/alat
        k(    1) = (  -0.1250000   0.1250000   0.1250000), wk =   0.0625000
        k(    2) = (  -0.3750000   0.3750000  -0.1250000), wk =   0.1875000
        k(    3) = (   0.3750000  -0.3750000   0.6250000), wk =   0.1875000
        k(    4) = (   0.1250000  -0.1250000   0.3750000), wk =   0.1875000
        k(    5) = (  -0.1250000   0.6250000   0.1250000), wk =   0.1875000
        k(    6) = (   0.6250000  -0.1250000   0.8750000), wk =   0.3750000
        k(    7) = (   0.3750000   0.1250000   0.6250000), wk =   0.3750000
        k(    8) = (  -0.1250000  -0.8750000   0.1250000), wk =   0.1875000
        k(    9) = (  -0.3750000   0.3750000   0.3750000), wk =   0.0625000
        k(   10) = (   0.3750000  -0.3750000   1.1250000), wk =   0.1875000

     Dense  grid:     9257 G-vectors     FFT dimensions: (  32,  32,  32)

     Estimated max dynamical RAM per process >       1.44 MB

     Estimated total dynamical RAM >      17.31 MB

     Initial potential from superposition of free atoms

     starting charge       7.9989, renormalised to       8.0000
     Starting wfcs are    8 randomized atomic wfcs

     total cpu time spent up to now is        0.4 secs

     Self-consistent Calculation

     iteration #  1     ecut=    40.00 Ry     beta= 0.70
     Davidson diagonalization with overlap
     ethr =  1.00E-02,  avg # of iterations =  2.0

     Threshold (ethr) on eigenvalues was too large:
     Diagonalizing with lowered threshold

     Davidson diagonalization with overlap
     ethr =  6.26E-04,  avg # of iterations =  1.4

     total cpu time spent up to now is        0.4 secs

     total energy              =     -20.43575236 Ry
     estimated scf accuracy    <       0.05424386 Ry

     iteration #  2     ecut=    40.00 Ry     beta= 0.70
     Davidson diagonalization with overlap
     ethr =  6.78E-04,  avg # of iterations =  1.0

     total cpu time spent up to now is        0.4 secs

     total energy              =     -20.43779241 Ry
     estimated scf accuracy    <       0.00281712 Ry

     iteration #  3     ecut=    40.00 Ry     beta= 0.70
     Davidson diagonalization with overlap
     ethr =  3.52E-05,  avg # of iterations =  3.0

     total cpu time spent up to now is        0.5 secs

     total energy              =     -20.43861079 Ry
     estimated scf accuracy    <       0.00009436 Ry

     iteration #  4     ecut=    40.00 Ry     beta= 0.70
     Davidson diagonalization with overlap
     ethr =  1.18E-06,  avg # of iterations =  4.0

     total cpu time spent up to now is        0.5 secs

     total energy              =     -20.43868087 Ry
     estimated scf accuracy    <       0.00000967 Ry

     iteration #  5     ecut=    40.00 Ry     beta= 0.70
     Davidson diagonalization with overlap
     ethr =  1.21E-07,  avg # of iterations =  3.6

     total cpu time spent up to now is        0.6 secs

     total energy              =     -20.43868571 Ry
     estimated scf accuracy    <       0.00000010 Ry

     iteration #  6     ecut=    40.00 Ry     beta= 0.70
     Davidson diagonalization with overlap
     ethr =  1.27E-09,  avg # of iterations =  6.7

     total cpu time spent up to now is        0.6 secs

     total energy              =     -20.43868606 Ry
     estimated scf accuracy    <       0.00000008 Ry

     iteration #  7     ecut=    40.00 Ry     beta= 0.70
     Davidson diagonalization with overlap
     ethr =  9.96E-10,  avg # of iterations =  2.0

     total cpu time spent up to now is        0.7 secs

     End of self-consistent calculation

          k =-0.1250 0.1250 0.1250 (  1173 PWs)   bands (ev):

    -5.5540   4.6066   5.9167   5.9167

          k =-0.3750 0.3750-0.1250 (  1151 PWs)   bands (ev):

    -4.5078   1.5788   3.8941   5.4310

          k = 0.3750-0.3750 0.6250 (  1160 PWs)   bands (ev):

    -3.3397  -0.5448   3.9250   4.6422

          k = 0.1250-0.1250 0.3750 (  1160 PWs)   bands (ev):

    -5.0165   2.9807   4.8863   4.9628

          k =-0.1250 0.6250 0.1250 (  1157 PWs)   bands (ev):

    -3.9660   1.2636   3.5340   3.9961

          k = 0.6250-0.1250 0.8750 (  1157 PWs)   bands (ev):

    -2.2897  -0.7284   2.1439   3.2445

          k = 0.3750 0.1250 0.6250 (  1150 PWs)   bands (ev):

    -3.5402   0.3625   2.8836   4.2754

          k =-0.1250-0.8750 0.1250 (  1150 PWs)   bands (ev):

    -2.4660  -0.6263   2.7685   3.5211

          k =-0.3750 0.3750 0.3750 (  1155 PWs)   bands (ev):

    -4.0645   0.2566   5.1178   5.1178

          k = 0.3750-0.3750 1.1250 (  1150 PWs)   bands (ev):

    -2.8354  -0.4374   2.2116   4.3178

     highest occupied level (ev):     5.9167

!    total energy              =     -20.43868608 Ry
     estimated scf accuracy    <          1.7E-09 Ry

     The total energy is the sum of the following terms:
     one-electron contribution =       5.11432662 Ry
     hartree contribution      =       1.10148624 Ry
     xc contribution           =      -9.85555541 Ry
     ewald contribution        =     -16.79894353 Ry

     convergence has been achieved in   7 iterations

     Writing all to output data dir ./Si.save/

     init_run     :      0.17s CPU      0.18s WALL (       1 calls)
     electrons    :      0.21s CPU      0.37s WALL (       1 calls)

     Called by init_run:
     wfcinit      :      0.03s CPU      0.03s WALL (       1 calls)
     potinit      :      0.00s CPU      0.01s WALL (       1 calls)
     hinit0       :      0.14s CPU      0.14s WALL (       1 calls)

     Called by electrons:
     c_bands      :      0.16s CPU      0.24s WALL (       8 calls)
     sum_band     :      0.03s CPU      0.03s WALL (       8 calls)
     v_of_rho     :      0.02s CPU      0.02s WALL (       8 calls)
     newd         :      0.00s CPU      0.01s WALL (       8 calls)
     mix_rho      :      0.00s CPU      0.00s WALL (       8 calls)

     Called by c_bands:
     init_us_2    :      0.00s CPU      0.00s WALL (     170 calls)
     init_us_2:cp :      0.00s CPU      0.00s WALL (     170 calls)
     cegterg      :      0.15s CPU      0.17s WALL (      80 calls)

     Called by *egterg:
     cdiaghg      :      0.01s CPU      0.01s WALL (     307 calls)
     h_psi        :      0.14s CPU      0.16s WALL (     327 calls)
     s_psi        :      0.00s CPU      0.00s WALL (     327 calls)
     g_psi        :      0.00s CPU      0.00s WALL (     237 calls)

     Called by h_psi:
     h_psi:calbec :      0.01s CPU      0.01s WALL (     327 calls)
     vloc_psi     :      0.13s CPU      0.15s WALL (     327 calls)
     add_vuspsi   :      0.00s CPU      0.00s WALL (     327 calls)

     General routines
     calbec       :      0.01s CPU      0.02s WALL (     407 calls)
     fft          :      0.14s CPU      0.14s WALL (      89 calls)
     ffts         :      0.00s CPU      0.00s WALL (       8 calls)
     fftw         :      0.13s CPU      0.15s WALL (    2576 calls)

     Parallel routines

     PWSCF        :      0.52s CPU      4.73s WALL


   This run was terminated on:  12: 0:44  17Apr2025            

=------------------------------------------------------------------------------=
   JOB DONE.
=------------------------------------------------------------------------------=
